<?xml version="1.0"?>
<VTKFile type="PolyData" version="0.1" byte_order="LittleEndian" header_type="UInt32" compressor="vtkZLibDataCompressor">
  <PolyData>
    <Piece NumberOfPoints="41599" NumberOfVerts="0" NumberOfLines="492" NumberOfStrips="0" NumberOfPolys="0">
      <PointData Scalars="d">
        <DataArray type="Float32" Name="d" format="ascii" RangeMin="0" RangeMax="108.25289917">
          0 2.4876327515 0.79711335897 0.50318825245 1.3398091793 5.5748338699
          0.99372726679 2.582546711 1.309269309 1.2993723154 1.4870584011 1.1633694172
          2.204249382 1.1131383181 0.77848261595 0.6923738718 9.6578788757 1.1563295126
          0.98856431246 0.98085802794 2.1488106251 2.0110146999 1.1226511002 1.8346163034
          4.9536314011 0 1.713411212 3.1525862217 1.3385689259 0.87098997831
          2.706674099 1.1386095285 0.85061228275 2.9030368328 1.2893431187 1.655472517
          1.7453343868 0.99882560968 0.99251395464 1.0163784027 1.1086887121 0
          0.37351036072 3.9031252861 2.7693378925 1.4748138189 7.8909592628 1.6930937767
          1.574246645 2.6095986366 1.3814936876 1.3374490738 1.2073045969 1.0613658428
          1.9511446953 2.6222295761 2.8300652504 2.299605608 0.77145552635 1.0478870869
          1.0312974453 0.87586915493 0 1.4565167427 6.4734106064 2.3994309902
          2.0126335621 1.6346005201 5.5379338264 2.7274267673 9.0400123596 3.7664418221
          2.4982914925 3.0625681877 2.7116732597 1.7930955887 0 1.4950448275
          1.5254379511 1.3829110861 2.2062659264 0.71678847075 0.58176416159 2.0080428123
          1.2223984003 2.9443461895 1.229788065 1.817740202 0.90692818165 1.2745747566
          1.4002640247 0 1.1304160357 1.1973216534 0.8041151762 1.5686104298
          0.56756722927 4.0595288277 2.9154536724 6.045817852 2.7706856728 1.0114008188
          1.0875273943 1.1889494658 1.2831171751 6.0359549522 2.9080569744 2.7396993637
          8.3830289841 0 1.8603696823 0.54316842556 1.4248640537 1.1663771868
          1.6131472588 1.7863098383 1.7128075361 1.6509157419 1.4468852282 1.3960795403
          0.76012164354 2.9337432384 3.5677595139 3.3565270901 2.419162035 0
          0.62039232254 3.4081430435 4.5571627617 2.8714141846 1.7355982065 2.2217929363
          2.2115933895 2.3250033855 2.2526495457 1.0354658365 1.2509400845 2.4027321339
          0 1.4817945957 5.2407021523 1.4738086462 1.3352377415 1.9222192764
          1.5496963263 4.3098959923 0.61039334536 2.3526973724 0 1.3183332682
          2.9223971367 3.3276045322 2.5967030525 1.8130429983 3.0575428009 2.5018758774
          2.0934352875 0 3.6070511341 1.1353297234 1.3463910818 1.2819381952
          2.8983511925 1.0639463663 1.406712532 1.4921646118 1.4803617001 1.4635242224
          1.1031060219 1.5262141228 1.0698258877 1.7541445494 4.3560857773 2.541987896
          1.4885816574 1.9139410257 2.3374378681 2.7683820724 2.2952103615 0
          2.1455955505 2.1474788189 2.3930134773 3.1879277229 0.804885149 0.92809462547
          1.0882025957 1.2009097338 1.1212990284 0.53494948149 0.85227400064 1.5267722607
          1.9763528109 1.9833078384 1.5773373842 1.7563076019 1.8801440001 1.9158843756
          2.0286135674 1.5758613348 1.6406158209 1.7133125067 1.8327878714 0
          6.2007422447 1.718283534 1.2305927277 0.91394877434 0.98208391666 1.3462148905
          0.74978441 2.0876832008 1.0021079779 2.131565094 2.2422189713 2.0939457417
          1.3801364899 2.3961083889 1.6636201143 1.4954509735 2.8729102612 1.2043247223
          0.91580706835 0.83281683922 1.3416500092 1.1695941687 1.0380322933 0.96249437332
          1.297934413 0.47370198369 1.4821070433 0.49819722772 0.42974901199 1.2649352551
          0.66799229383 3.3145000935 0.84257316589 2.2669410706 2.8024613857 1.7453938723
          1.7363618612 1.2515152693 1.8003742695 2.0373799801 2.1315765381 1.7950592041
          4.6742482185 2.102191925 1.4149426222 6.3315572739 2.9694538116 0.74861961603
          1.3464833498 1.2391887903 1.1443924904 0.7213973999 1.1679258347 1.0175918341
          1.1292077303 3.0447323322 0.53753387928 0.58752048016 2.0442566872 2.2114474773
          0.9739035964 1.1814447641 0.23933826387 0.45222976804 1.3129541874 1.2195767164
          0.86889714003 0.97625929117 1.0429506302 1.0903161764 1.0602701902 1.134542942
          0.88441997766 1.7520895004 2.2767827511 2.4505717754 1.939465642 1.8292410374
          2.121004343 2.5108163357 2.2441287041 1.4217380285 0.88103938103 4.5836119652
          1.4962110519 0.80786275864 2.7484951019 0.98296064138 3.1661360264 1.034645915
          1.0818619728 0.94910144806 1.4850655794 1.2108665705 0.91849130392 2.2403197289
          2.3507397175 2.2989966869 1.4513094425 2.0545186996 0.91966748238 1.883302927
          1.1947220564 0.58517968655 0.86612707376 0.93008559942 0.96994173527 5.2101564407
          2.9835159779 2.1549780369 3.6301772594 0.9204492569 0.88136219978 2.3049399853
          2.0326962471 2.2908742428 0.9390155673 1.148299098 2.0432677269 0.69531404972
          0.66743713617 0.38179078698 0.72128093243 1.4249740839 10.661493301 2.3881845474
          2.1938560009 0.84544634819 1.023058176 0.95942270756 1.092024684 0.97753959894
          1.5852508545 1.5606812239 1.3959466219 1.8710430861 8.0399427414 3.5999925137
          5.7844176292 2.1451451778 2.2243289948 4.524034977 4.341401577 6.9563145638
          2.2279624939 4.554831028 2.1439321041 1.961185813 1.6572958231 2.3122348785
          1.5515915155 1.8340797424 2.2051427364 1.1548734903 0.89129787683 2.2252671719
          2.1323442459 2.105670929 2.1785359383 5.0084137917 4.5659947395 4.2182106972
          4.0559129715 4.2601423264 8.3391313553 3.9040760994 17.336051941 17.02599144
          27.045940399 19.85111618 16.998783112 4.0025286674 4.5137209892 11.650712967
          16.026275635 4.1983761787 8.8364095688 14.29348278 22.339294434 4.3853321075
          10.469648361 1.9394786358 5.8230977058 12.815290451 18.268558502 20.495695114
          6.5657091141 1.9005558491 8.1120433807 5.5541114807 2.0653896332 6.1817417145
          1.9924898148 6.3265929222 1.3946639299 2.9001004696 8.898856163 0.96570122242
          5.8560810089 17.103860855 2.239682436 3.1776652336 7.9989004135 45.397537231
          20.389123917 24.039928436 18.210601807 1.8858081102 1.1081165075 2.6161842346
          0.7247851491 23.893451691 16.939161301 2.050358057 0.99529790878 3.0520637035
          11.019405365 10.880419731 3.1869251728 2.9237024784 7.7798304558 28.950717926
          9.3820762634 3.1611566544 4.2617998123 1.8121961355 1.1986916065 3.5335659981
          1.2711436749 2.3395574093 0.88233232498 2.4801061153 6.7416234016 3.0840308666
          5.3859615326 6.0696396828 7.7947430611 15.384409904 16.1752491 6.1545753479
          13.448370934 8.7083444595 17.021818161 5.9618988037 1.7677805424 1.7186473608
          14.123267174 7.3880181313 8.6686553955 3.6944923401 17.966320038 15.328399658
          4.1862778664 2.176520586 5.5183768272 1.3810789585 1.9682006836 2.4296460152
          4.752219677 7.4607949257 4.3091025352 4.0972447395 4.7297635078 2.3445658684
          2.1246032715 1.9895253181 8.4797801971 0.87607717514 0.7158741951 0.95994496346
          1.2830706835 2.6589772701 2.8041472435 5.1830525398 2.2778658867 5.2822875977
          2.3822739124 1.9114271402 2.2117111683 2.0540883541 2.069535017 2.0605027676
          0.20261366665 0.37498426437 0.45301774144 0.47079080343 0.66568702459 4.8156113625
          8.2200403214 2.9455969334 2.3461010456 0.99818384647 1.5578854084 0.89391684532
          0.66979974508 1.5114873648 2.1074743271 4.4731459618 1.9006220102 1.2237548828
          2.5938475132 0.72678261995 0.99503612518 2.8652091026 1.6084229946 7.0768485069
          1.4230451584 1.8965302706 1.9495304823 1.379324913 1.4068499804 7.1280875206
          3.9246048927 4.0582995415 7.6066350937 3.5669021606 0.33486288786 0.57761323452
          0.64130812883 0.60027676821 0.63080912828 1.4390672445 0.6366417408 3.042655468
          1.0772639513 7.1335582733 4.2344942093 3.9279429913 3.9101486206 2.2097837925
          1.471714735 1.4021811485 3.6667470932 7.6041445732 3.4290690422 2.1198849678
          1.0650522709 2.8024950027 1.1461389065 1.2450420856 2.8889536858 8.0617027283
          3.817792654 3.5191960335 1.7091197968 1.4522242546 1.5773338079 1.6939991713
          2.6866202354 0.48071718216 0.58597224951 0.58106386662 0.46519878507 2.4333024025
          1.2205826044 9.623128891 3.7175824642 3.6297991276 3.7822132111 1.8814221621
          1.3480231762 3.6610238552 2.1665763855 1.7461737394 2.2503647804 1.0578472614
          1.0586909056 1.2858563662 1.2091101408 0.69465708733 8.5295238495 2.0195307732
          0.82346504927 4.0214290619 1.813102603 4.6344089508 4.0340132713 1.7721352577
          0.87631112337 2.5667486191 4.0722227097 1.0522390604 0.96610832214 1.4730968475
          4.1043381691 2.4084556103 4.7212309837 1.5338218212 1.552113533 3.6741328239
          1.7944661379 1.8146348 3.8731460571 1.5376455784 1.0510697365 1.8927090168
          0.93175810575 1.1636037827 1.1460208893 1.0922336578 0.83355677128 1.9610557556
          1.8668658733 1.9833561182 1.8380781412 0.75616884232 2.6613373756 1.9964236021
          1.0534831285 2.1672041416 15.220377922 1.866997838 3.6147401333 4.6469812393
          1.6832648516 4.9939036369 0.39238265157 0.6712988615 2.6263794899 2.3844878674
          1.0188035965 1.7000060081 3.9807605743 1.9533914328 2.3669404984 1.095594883
          1.2182415724 2.1494345665 2.7760686874 4.8481688499 2.4971187115 2.7926840782
          2.6057839394 2.3306946754 1.8733679056 16.135095596 0.94556295872 0.96612673998
          1.2144932747 0.92669427395 0.84560722113 0.74090057611 1.7127895355 10.331625938
          2.6548438072 1.7117507458 9.8684434891 9.226313591 1.9372442961 3.726290226
          2.0532343388 1.5531599522 3.2750253677 1.6438144445 1.7430092096 1.6903601885
          1.6650198698 1.6120371819 3.1387236118 1.5698263645 1.8575855494 4.5981497765
          5.2174935341 1.4676318169 8.476398468 3.0522699356 6.205072403 3.2271943092
          1.2890737057 1.1048582792 1.3804678917 2.3285429478 1.3040839434 8.0578041077
          0.99653530121 4.1257767677 2.5333249569 3.0791969299 3.0993216038 2.515917778
          2.8167972565 2.3787198067 2.5493433475 2.6068725586 1.2740485668 1.2437708378
          2.1779971123 3.015024662 4.7754802704 3.1526648998 2.7090387344 3.0873932838
          3.1998443604 2.7340121269 1.1009545326 2.8326408863 0.54598027468 0.70000422001
          0.51182919741 1.0052093267 0.55816084146 1.8937292099 2.5552632809 1.5394556522
          1.6304347515 1.6934895515 1.3076963425 0.80091154575 2.3017060757 2.5252292156
          1.4679512978 1.3861736059 1.6400163174 0.85060733557 0.88242834806 1.4562921524
          1.0460186005 0.98480635881 1.1731038094 1.0156559944 1.7495014668 1.1083716154
          0.96140390635 2.0666880608 0.68222522736 17.214010239 0.92869180441 1.9325885773
          0.60026609898 4.8172655106 0.55963599682 5.733063221 1.2048639059 1.3037058115
          6.1564078331 1.8370708227 4.252407074 1.3952109814 1.5908745527 2.3386147022
          2.3023798466 2.3494668007 4.6642684937 2.1864082813 3.7641973495 3.8772187233
          1.9714406729 8.4390726089 4.26714468 4.2500953674 1.9793586731 4.2354664803
          2.1409509182 2.4845817089 2.2692785263 3.6032514572 2.6536564827 1.4694777727
          3.8914895058 7.1654138565 1.9164153337 4.5771203041 3.181735754 0.70968437195
          1.2524366379 0.81523919106 0.89667361975 0.635173738 2.2246274948 2.2178936005
          1.6085295677 1.7091383934 1.217956543 5.5701665878 0.97565352917 0.97565346956
          1.4862618446 4.581091404 1.077888608 0.71559923887 0.90331238508 0.78572154045
          1.8988856077 0.87042051554 0.68073427677 1.6714719534 0.88240504265 0.57475340366
          0.53325623274 0.59048688412 0.74124294519 0.43581900001 1.2542374134 0.25541684031
          5.3283309937 1.4182136059 1.6316332817 1.9243901968 1.9316357374 2.8692066669
          0.80021804571 1.0325549841 0.97232228518 1.1314207315 0.91695302725 0.91850745678
          1.597545743 4.1177539825 1.8100990057 3.3745980263 1.2301301956 1.7902060747
          1.3196843863 1.2200353146 2.4888806343 1.4672546387 3.8708331585 2.898982048
          6.202398777 6.1155195236 5.7539052963 1.5785942078 2.7315397263 2.486641407
          2.9012479782 3.5580155849 3.1000154018 5.9016923904 3.3359470367 2.9887094498
          1.0829945803 6.18318367 1.4675223827 3.1763987541 1.8653757572 0.76418358088
          1.8090144396 1.7609550953 3.8562531471 1.6477835178 0.84879881144 0.71200990677
          0.91413867474 1.1146838665 1.2274559736 0.91567915678 1.9331469536 1.9533740282
          4.275138855 1.3546078205 2.75709939 1.1009403467 1.6116702557 2.5316383839
          1.1381160021 1.1453547478 1.2766269445 1.1495474577 1.0341725349 1.1905808449
          1.4987126589 1.4702260494 1.2293380499 2.850481987 2.1514568329 2.0539085865
          3.0464742184 1.4296367168 4.4037280083 3.889588356 1.317741394 0.9115396142
          0.44966551661 0.35027325153 0.81758159399 6.4170794487 1.5414558649 1.5677894354
          2.0024163723 3.858284235 4.8991875648 2.0702662468 1.0020823479 1.1962043047
          2.2814798355 0.7254858613 3.4019398689 4.4916887283 2.593082428 1.1116509438
          7.9780607224 1.9218243361 0.86213570833 0.94807344675 1.1850910187 1.4110424519
          1.4454615116 3.1742219925 2.0836706161 2.099609375 1.9322071075 0.71322584152
          0.55169695616 0.56895595789 0.99988108873 5.0921082497 2.5639057159 4.1662693024
          4.131705761 4.3578958511 14.543595314 7.0503640175 0.94219917059 1.8819252253
          1.0159550905 0.73208028078 1.3213553429 1.9695495367 2.2191548347 3.689142704
          4.0581040382 2.8172147274 3.8110539913 19.991529465 16.089570999 4.4874625206
          3.3521044254 0.87915658951 1.2615988255 1.2138246298 1.0525774956 0.91135823727
          0.91425585747 16.07003212 4.2642607689 2.5907657146 7.2755560875 1.96877563
          5.0719866753 2.2822365761 2.3233857155 12.359240532 2.0185201168 2.9349884987
          4.4052019119 1.7812486887 2.150945425 6.4307398796 1.0698931217 2.3547992706
          15.447555542 4.6137256622 2.5057673454 1.853625536 5.147315979 2.1253964901
          3.1722226143 4.2055978775 4.1856069565 3.4220998287 3.5561423302 1.6618260145
          2.3916268349 6.0693507195 2.3205366135 1.3126645088 4.36733675 3.7453875542
          3.7444739342 3.6931481361 3.8416962624 3.8633127213 3.9908857346 4.2261981964
          3.8719904423 4.2576107979 4.0406069756 3.3647537231 12.021972656 10.962219238
          6.9101653099 5.5829524994 1.5606417656 1.4133485556 0.86399048567 1.195338726
          1.8291665316 2.5859589577 3.0443561077 6.925778389 1.795607686 0.64772552252
          1.4500136375 3.9877352715 5.3795499802 0.63540476561 18.592702866 10.626549721
          9.7504892349 14.435080528 9.3325967789 3.812302351 3.7112116814 4.4550595284
          3.753673315 7.7145085335 3.3952736855 4.4725794792 7.9839940071 5.3751940727
          8.616147995 4.9409222603 2.4155957699 2.0320103168 2.5216007233 4.633658886
          1.962651372 1.0409725904 1.7557832003 1.0476711988 1.5528640747 1.475114584
          0.66864806414 0.97932058573 0.92981874943 2.0078971386 1.0373312235 4.1464123726
          1.7024772167 2.8868069649 2.6554787159 1.8468239307 1.6617350578 1.2165778875
          2.346768856 1.1589084864 0.86806851625 2.2654378414 1.1642972231 4.2035160065
          4.1083045006 3.6002058983 3.1703681946 3.4718239307 1.4585764408 2.1552696228
          1.8401340246 2.9567396641 2.2418348789 4.3305511475 1.8028606176 2.5185682774
          2.1943342686 4.2759680748 2.4640259743 1.204054594 1.934764266 1.1565850973
          1.7516841888 1.3677945137 1.2654349804 2.06381464 2.1766579151 14.23164463
          17.38275528 9.2650403976 5.1180758476 13.413644791 13.453629494 17.209566116
          20.047571182 17.251525879 14.350298882 7.9346160889 6.9603290558 1.150178194
          1.5428987741 13.417866707 0.94939011335 2.1861693859 9.8297472 1.91753757
          4.2260937691 2.1753501892 8.8592195511 3.4926378727 0.61596620083 1.4504047632
          0.57968384027 0.83673375845 1.4691249132 0.74130219221 2.4456958771 1.2613117695
          0.98499447107 1.1004039049 2.4008426666 0.89992570877 2.104937315 2.4911174774
          2.710277319 2.522238493 1.0973721743 2.4487092495 2.6310203075 1.3406741619
          1.2666782141 1.042663455 4.00922966 14.496068954 2.4318532944 4.2135829926
          1.6900274754 9.5785570145 9.5698843002 8.7826967239 6.5818076134 2.399844408
          2.4416708946 6.1180005074 4.8491249084 2.5953273773 2.323050499 1.7983822823
          4.3134498596 6.6826019287 14.856698036 2.0973100662 26.528335571 1.1980575323
          5.9651875496 2.3537449837 4.6582155228 2.0531928539 4.4531521797 5.1717920303
          5.1715803146 15.91070652 4.1328959465 13.050387383 10.144886971 1.6017211676
          1.9814873934 8.3216075897 1.7180347443 3.8799786568 2.08878088 12.277718544
          3.3918111324 1.1862163544 0.79079252481 3.7841618061 1.0107917786 13.274331093
          4.664627552 4.8146419525 2.4466631413 4.6095104218 2.2027974129 1.160467267
          2.7440299988 1.1865557432 1.2521914244 27.610319138 15.88368988 18.291341782
          32.245357513 19.2388134 12.799237251 8.2564306259 9.8545246124 15.652274132
          1.9624557495 4.2658977509 2.547358036 2.5164942741 2.4406926632 1.7902070284
          2.6696429253 3.6566529274 5.9621143341 4.1906943321 5.589764595 3.4173638821
          1.4055497646 3.0990824699 3.1062483788 1.9491763115 3.0170295238 2.874797821
          2.9172334671 4.1546192169 3.6007876396 3.9184212685 4.1701512337 4.1559581757
          3.6012177467 3.443167448 13.998130798 12.615432739 4.436029911 4.062769413
          2.5162086487 3.3091254234 2.4397833347 1.690105319 3.6594974995 5.1113696098
          3.7094099522 5.2809381485 2.4638214111 12.282417297 6.796184063 3.3090090752
          5.900182724 12.903420448 2.8730540276 1.0488647223 2.8321182728 4.5866117477
          2.527977705 3.1193776131 1.894944191 2.2615597248 2.1171078682 3.0873672962
          5.5204014778 2.979426384 3.8567545414 4.4943175316 1.0462636948 2.3907549381
          3.8453426361 2.6624588966 2.0122725964 4.4506239891 5.00274086 1.9726632833
          2.365447998 1.7891743183 2.5866143703 2.0107040405 2.2611343861 3.1909925938
          3.6583039761 3.1913025379 3.769469738 2.9935889244 2.4473547935 4.2882804871
          4.0011200905 1.6238472462 1.7849941254 1.6555371284 2.2251591682 1.3248486519
          2.9396808147 2.0912699699 2.5312025547 1.0466058254 4.9693131447 2.0707788467
          2.9625611305 2.5152821541 2.8099253178 1.6871464252 1.5005996227 1.6176151037
          1.7822487354 1.687146306 2.2638392448 1.9306504726 1.6666522026 2.5235652924
          2.0632281303 1.688328743 2.5846176147 2.5833456516 1.480132699 1.7310099602
          3.1866576672 3.9978022575 2.1842880249 2.1845495701 3.0772838593 3.6377243996
          3.1184196472 4.7654056549 2.853805542 2.4456698895 3.9910094738 3.1153986454
          3.7470428944 4.181951046 4.2960977554 3.2579913139 6.7604079247 2.3476662636
          1.8903398514 2.3062839508 3.5289628506 6.0826616287 3.4715952873 3.6275248528
          2.3194663525 3.2089338303 1.7095394135 3.2064900398 3.50060606 4.553712368
          3.1193797588 2.4578039646 1.9794272184 1.6874604225 2.0693936348 1.7720652819
          1.5144608021 1.4938322306 1.890013814 1.8440397978 4.872803688 2.9991290569
          2.4241933823 2.9303970337 2.6017370224 3.7415502071 3.6793785095 4.0018186569
          3.6801309586 1.3852610588 3.4767467976 4.2199721336 2.571554184 2.2742812634
          1.3808574677 0.95519679785 1.4853373766 2.1893837452 3.9234912395 4.4259610176
          4.2648663521 3.3241839409 3.7445147038 2.8525600433 2.7233331203 3.6742949486
          2.0690176487 2.3480722904 0.8483273387 1.8890618086 1.3827573061 2.2072529793
          1.9541879892 2.4425237179 2.2079255581 3.2657191753 2.6421942711 3.0059113503
          1.8510551453 3.3481347561 4.9050440788 3.0444252491 4.3295230865 1.8180201054
          3.452226162 1.4971643686 2.9298899174 10.816057205 5.1246657372 4.138314724
          5.0869455338 1.1863304377 2.1786055565 1.0974173546 1.5495280027 0.47984886169
          0.4756065011 0.6004472971 2.1498978138 3.6445195675 2.5655732155 3.6461908817
          6.4138131142 3.4241962433 3.018846035 2.0035128593 5.9457058907 4.0608286858
          3.8474559784 2.549775362 2.9963936806 2.5472350121 8.3466901779 6.9436321259
          2.0708463192 1.8157820702 2.8278129101 2.7009105682 2.5245828629 3.0059051514
          2.4693889618 3.570838213 3.5830354691 4.9420847893 3.4130403996 3.1357853413
          2.6437838078 3.1336874962 2.4683644772 4.7587170601 0.81626904011 1.3665966988
          1.5092521906 1.1876828671 2.5888411999 5.0633444786 2.8353102207 0.99070978165
          1.1416186094 2.2533838749 0.7216438055 1.3120231628 1.4585903883 0.94610321522
          0.26788452268 1.0430760384 2.2069981098 1.6701033115 1.636523962 2.4917469025
          2.2033686638 2.8503508568 2.7676343918 2.3093962669 2.1491038799 5.7810125351
          4.0335626602 1.9519327879 1.8410483599 1.5093246698 1.8996659517 2.1386837959
          2.1144068241 1.6355564594 0.56341511011 2.1467638016 0.77174788713 4.4046959877
          1.7014144659 7.5545554161 11.005654335 4.9640192986 17.665603638 2.5461101532
          1.8577685356 7.1560554504 3.0727272034 1.2923766375 1.834856391 4.9798836708
          3.6869823933 3.0380403996 2.9905333519 3.8862113953 2.7747247219 2.3554787636
          1.4582881927 0.83931452036 0.95960050821 2.1040346622 0.98656362295 2.3488872051
          2.5651545525 2.5720829964 2.9548959732 2.3816168308 2.3869066238 2.1906285286
          2.0353589058 2.1438717842 2.8326647282 2.8753099442 2.0391881466 11.311749458
          16.123758316 4.5341420174 4.7218294144 5.0024561882 18.307933807 2.4079127312
          1.7142870426 3.6824653149 2.5039031506 2.4658286572 4.9967694283 3.8406999111
          2.3358430862 1.9895663261 1.8821158409 1.8762072325 2.0727145672 2.5778636932
          2.5989773273 1.9592570066 1.9007341862 5.3565101624 2.3928205967 10.097136497
          2.1812207699 2.2563061714 12.684025764 1.1452573538 0.83877795935 0.97351586819
          0.97766780853 1.2419140339 0.71530842781 2.74127841 2.3240864277 1.3054310083
          1.352214694 1.1720705032 4.5796751976 2.1200900078 2.9979352951 0.70026689768
          1.772310853 0.94103521109 7.5773854256 4.6314272881 2.4264929295 9.6573066711
          6.9439759254 2.0836312771 2.7253727913 1.1258116961 1.1088211536 1.237795949
          1.3528763056 1.4054688215 2.9241485596 2.7249834538 13.435530663 3.4685578346
          3.2109441757 2.7193131447 7.2641386986 7.0728292465 1.2798850536 1.368204236
          1.537252903 1.7527706623 4.3787856102 2.3894786835 2.4586510658 0.9128164649
          3.7467696667 1.4223265648 1.1006782055 1.0250290632 1.7652106285 1.3651837111
          2.4930729866 1.4075841904 5.3938002586 2.051101923 1.0819113255 5.0184764862
          2.7604131699 2.4118254185 5.2334108353 2.1699235439 25.851209641 2.4856283665
          2.3031933308 2.1991004944 4.7813162804 7.1702661514 12.258044243 3.5163824558
          3.8508317471 2.1254212856 2.2046575546 2.1717057228 2.0023057461 1.5477005243
          1.8225768805 2.1717760563 1.7640175819 1.8778312206 1.7750548124 2.1899626255
          4.9422473907 20.667299271 4.0614848137 3.9057517052 4.2033762932 1.6782329082
          4.5906171799 1.6929180622 4.3039693832 2.106048584 1.6343870163 1.3771663904
          2.195207119 1.749765873 2.1125233173 1.7371439934 2.3368189335 2.0176072121
          1.2598215342 4.5741968155 1.2034264803 1.6024711132 2.8762125969 4.6565160751
          3.1715435982 3.2647027969 3.2434716225 2.3088049889 2.5588481426 2.6150298119
          3.1967983246 1.1733708382 1.5090817213 1.3712496758 1.5361559391 1.5881211758
          1.6008960009 1.5133293867 1.9356911182 2.1865780354 1.3468409777 1.465341568
          2.5167660713 1.0030510426 2.4336709976 1.3492538929 2.538210392 2.4377584457
          7.2898783684 3.1100804806 3.1882133484 0.89172738791 4.2272748947 1.3063205481
          1.6012138128 1.0600512028 1.0574134588 1.1824713945 1.0760951042 4.2234625816
          4.4515047073 2.2016234398 1.0192878246 1.8621408939 0.8705560565 0.81288701296
          2.1287419796 1.2859529257 1.2225036621 2.442517519 3.0074932575 1.6117691994
          10.78513813 3.6478147507 0.33593592048 0.37873452902 0.40922147036 0.55097669363
          0.66488289833 1.7256485224 4.5681562424 1.8142935038 2.4229130745 0.97672438622
          2.3471512794 1.2937800884 8.6819057465 18.287672043 4.511341095 4.1391839981
          5.1204595566 1.5367530584 1.4292989969 1.3973828554 1.034496069 1.5393306017
          14.322849274 25.665327072 2.8449630737 2.2478497028 2.0119318962 2.2688252926
          4.0829305649 11.311487198 3.400285244 4.6059770584 16.453266144 1.6872822046
          4.0676860809 4.9746928215 4.8253383636 4.4678764343 4.3049492836 2.5144221783
          1.7148348093 5.7128667831 3.647547245 1.7081457376 1.8603299856 3.8265044689
          3.6360008717 3.8014135361 4.5413432121 5.0522093773 1.5160312653 2.359200716
          1.2880455256 1.8885202408 2.219489336 2.4447886944 2.1693296432 3.6515831947
          1.511595726 4.5677399635 4.4912028313 1.9389439821 4.0241394043 1.1497927904
          0.64667981863 1.035590291 1.1416441202 2.5579838753 1.1001181602 2.1583521366
          4.0018644333 14.41332531 6.562725544 7.3357396126 2.2622284889 1.6543465853
          1.744790554 0.85137069225 1.0429872274 1.1544382572 0.99592500925 0.49264627695
          1.0860978365 1.8257648945 2.3168728352 4.4684300423 1.028465271 2.4814109802
          1.3188798428 1.3756927252 0.86041009426 6.7417197227 2.2094135284 2.5162093639
          2.1050930023 2.5762898922 2.3358047009 1.4777530432 1.2495110035 12.126168251
          0.94858908653 2.4980754852 0.62623357773 1.2935506105 1.2317620516 3.7228531837
          1.562941432 0.63530004025 1.0926697254 0.66032552719 0.69401115179 0.95920103788
          1.7408508062 0.69292294979 0.62678074837 1.3789622784 0.4129242897 1.5044282675
          2.0413234234 8.4381933212 4.2076325417 4.4259762764 8.7275695801 8.101723671
          3.5082788467 4.6392221451 2.6848266125 2.1932625771 1.8374055624 1.5545253754
          1.60523808 0.57003772259 0.78147637844 0.90674471855 0.4552962184 1.6360136271
          4.53642416 1.0949772596 1.7119634151 4.1209969521 2.8264863491 2.1912994385
          0.95023196936 1.4873373508 2.7602739334 1.2015607357 1.6953101158 0.74444961548
          2.6855225563 0.96572393179 2.3442370892 0.97551745176 2.2353434563 1.0249137878
          1.0765118599 24.973638535 1.7263352871 1.164095521 0.86114674807 0.86443680525
          1.2292631865 0.7908397913 1.1403086185 0.6936377883 1.7457364798 2.4477288723
          1.9447661638 2.0473635197 1.8461697102 1.1508749723 2.3819105625 1.0698463917
          1.4004677534 0.92766320705 1.0696450472 1.431353569 1.6234198809 4.7099323273
          14.973229408 0.13463364542 0.40892362595 1.1245419979 0.56918734312 0.34113034606
          0.35055762529 3.247123003 1.0936383009 1.1992260218 0.76328784227 0.73058354855
          0.91898936033 1.5780303478 2.028408289 2.1949408054 4.7248058319 2.3824937344
          2.4602975845 2.3401334286 3.4508619308 3.5140647888 6.4369077682 12.163879395
          3.7500362396 2.4682044983 1.5861164331 1.6547745466 1.915194869 3.6688351631
          0.93906515837 1.0908813477 1.1948102713 0.99477297068 3.3368825912 2.4508042336
          6.0075078011 2.9683980942 1.6282416582 1.1489496231 2.1222207546 2.1076376438
          8.7300453186 4.3827934265 2.4769697189 2.0711593628 4.5084428787 2.0005567074
          1.0018725395 1.7047688961 0.61880552769 1.2949653864 1.0065566301 1.0539166927
          1.1150943041 4.5252780914 2.6852138042 2.1696631908 2.4442205429 4.1232252121
          1.6038337946 0.67726832628 3.8046216965 0.79305231571 2.084056139 1.2318714857
          1.9078788757 1.1593794823 1.1923010349 1.0961253643 2.239064455 2.2258758545
          4.8998184204 11.111470222 17.363599777 17.61207962 14.313317299 31.685739517
          17.550205231 17.3638134 22.134803772 5.6397972107 1.5454157591 1.6484829187
          18.062662125 18.375921249 20.080566406 6.5855755806 3.2445290089 1.7202948332
          2.2857794762 1.2166540623 1.2007242441 2.2893099785 1.2902013063 5.3885769844
          4.9815855026 1.9018599987 2.7457008362 1.0547140837 1.5270513296 1.2804788351
          1.2545948029 1.1989036798 3.1163651943 1.2009403706 2.1614599228 1.6780077219
          1.0753275156 1.1526494026 3.9434988499 0.98531991243 6.678668499 2.0272018909
          2.4256896973 1.5598974228 1.6907455921 3.6579601765 3.6962893009 2.274610281
          6.9582223892 3.1029727459 1.7943804264 1.5060656071 1.6589292288 1.8457360268
          2.3375053406 2.4270529747 14.757725716 3.5551865101 3.3634412289 1.6031837463
          6.9619092941 2.6356580257 2.4524290562 5.0124554634 0.57075166702 0.81887716055
          0.71730929613 3.4006824493 1.8692922592 3.4012897015 8.730802536 4.073589325
          4.0622682571 2.7551317215 4.2016220093 2.9800121784 2.5938894749 3.4581151009
          3.2996110916 3.7123372555 3.4716427326 3.86541152 0.654073596 0.85309833288
          0.7964015007 0.76907128096 0.85369896889 4.5982146263 3.9891102314 4.2353920937
          7.6360425949 7.0603580475 1.0702387094 1.298307538 1.2630882263 1.227342248
          2.2964310646 2.5881717205 1.0513187647 2.8375566006 3.7331528664 1.1017364264